1987	1986	1992	1987	1992	1990	2004	1988	2001	2002	1988	1983
